LAMMPS (9 Oct 2012)
# Test system for LAMMPS simulation

units       real
atom_style  full
log         sim.log
